TITLE     = "Quad"
VARIABLES = "X", "Y", "Z", "R"
Zone N=4, E=1, F=FEPOINT, ET=QUADRILATERAL
+1.000000 +1.000000 0 1
+1.000000 -1.000000 0 0
-1.000000 -1.000000 0 2
-1.000000 +1.000000 0 0.5     
1 2 3 4